# vtk DataFile Version 2.0
Generated by VTKer
ASCII
DATASET UNSTRUCTURED_GRID
POINTS 20 float
-1.5 0 0   -0.2 0 0   -0.2 1 0   -1.5 1 0   
-0.2 0 0   1.1 0 0   1.1 1 0   -0.2 1 0   
1.1 0 0   2.4 0 0   2.4 1 0   1.1 1 0   
2.4 0 0   3.7 0 0   3.7 1 0   2.4 1 0   
3.7 0 0   5 0 0   5 1 0   3.7 1 0   

CELLS 5 25
4 0 1 2 3 
4 4 5 6 7 
4 8 9 10 11 
4 12 13 14 15 
4 16 17 18 19 

CELL_TYPES 5
9
9
9
9
9

POINT_DATA 20
SCALARS particles_per_cell float 1
LOOKUP_TABLE default
48 48 48 48
53 53 53 53
49 49 49 49
49 49 49 49
51 51 51 51
